LAMMPS (31 Mar 2017)
Reading data file ...
  orthogonal box = (-15 -15 -15) to (15 15 15)
  1 by 2 by 2 MPI processor grid
  reading atoms ...
  26 atoms
  reading velocities ...
  26 velocities
Reading potential file /home/rmeyer/lammps/potentials/library.meam with DATE: 2012-06-29
Neighbor list info ...
  update every 1 steps, delay 10 steps, check yes
  max neighbors/atom: 2000, page size: 100000
  master list distance cutoff = 6
  ghost atom cutoff = 6
  binsize = 3, bins = 10 10 10
  2 neighbor lists, perpetual/occasional/extra = 2 0 0
  (1) pair meam, perpetual
      attributes: full, newton on
      pair build: full/bin/atomonly
      stencil: full/bin/3d
      bin: standard
  (2) pair meam, perpetual, half/full from (1)
      attributes: half, newton on
      pair build: halffull/newton
      stencil: none
      bin: none
Setting up Verlet run ...
  Unit style    : metal
  Current step  : 0
  Time step     : 0.002
Per MPI rank memory allocation (min/avg/max) = 10.22 | 10.54 | 10.85 Mbytes
Step Temp TotEng PotEng Press Volume Enthalpy 
       0        10000   -29.803776   -62.118812    3016.5683        27000    21.031662 
       1    10712.915   -29.835862   -64.454685    2384.9415        27000    10.355353 
       2    11404.944   -29.853633   -66.708751     1753.771        27000  -0.29895116 
       3    11966.523   -29.853838     -68.5237    1211.7209        27000   -9.4338248 
       4    12363.446   -29.844297   -69.796816    795.25255        27000   -16.442641 
       5    12612.163   -29.832757   -70.589006    498.54057        27000   -21.431313 
Loop time of 20.8858 on 4 procs for 100000 steps with 26 atoms

Performance: 827.357 ns/day, 0.029 hours/ns, 4787.945 timesteps/s
96.3% CPU use with 4 MPI tasks x no OpenMP threads

MPI task timing breakdown:
Section |  min time  |  avg time  |  max time  |%varavg| %total
---------------------------------------------------------------
Pair    | 2.5765     | 2.6664     | 2.724      |   3.5 | 12.77
Neigh   | 0.014282   | 0.017275   | 0.018563   |   1.3 |  0.08
Comm    | 0.81349    | 0.95839    | 1.0854     |  10.2 |  4.59
Output  | 15.466     | 15.66      | 16.078     |   6.1 | 74.98
Modify  | 0.75253    | 0.78313    | 0.85142    |   4.5 |  3.75
Other   |            | 0.8001     |            |       |  3.83

Nlocal:    6.5 ave 10 max 3 min
Histogram: 1 0 1 0 0 0 0 1 0 1
Nghost:    9.25 ave 11 max 8 min
Histogram: 1 0 0 2 0 0 0 0 0 1
Neighs:    22 ave 48 max 3 min
Histogram: 2 0 0 0 0 0 1 0 0 1
FullNghs:  44 ave 83 max 6 min
Histogram: 2 0 0 0 0 0 0 0 0 2

Total # of neighbors = 176
Ave neighs/atom = 6.76923
Neighbor list builds = 2037
Dangerous builds = 0
Total wall time: 0:00:22
