ITEM: TIMESTEP
0
ITEM: NUMBER OF ATOMS
26
ITEM: BOX BOUNDS ff ff ff
-1.5000000000000000e+01 1.5000000000000000e+01
-1.5000000000000000e+01 1.5000000000000000e+01
-1.5000000000000000e+01 1.5000000000000000e+01
ITEM: ATOMS element x y z fx fy fz 
Au 0 0 0 10.1944 -0.782955 2.71506 
Au -8.87803 -0.53645 0.19258 1.82912 0.311281 -0.182045 
Au -7.06365 1.76129 -0.29539 1.41136 -0.433364 0.00765708 
Au -5.40391 4.08452 -0.96449 -0.295007 -1.73272 0.722075 
Au -4.63949 0.4575 0.77061 -0.689271 -0.195937 -0.504247 
Au -6.28023 -1.92323 0.60467 0.551226 1.48583 -0.632542 
Au -4.53662 1.38337 -1.96234 -0.7253 -0.480484 1.41457 
Au -6.86736 -0.56702 -2.01609 0.674139 0.412514 1.63791 
Au -5.52414 3.03586 1.87345 -0.295778 -1.09519 -1.33073 
Au -7.07995 0.4345 2.36911 -4.29267 21.7345 -37.0491 
Au -3.2648 -2.06975 1.24991 -1.08386 1.13159 -0.801462 
Au -4.18824 -1.56643 -1.50541 -0.690567 1.07089 1.22571 
Au -2.0273 0.15485 -0.53999 -11.2861 0.337877 -2.63196 
Au 0 0 6 12.3126 -0.931544 2.78796 
Au -8.87803 -0.53645 6.19258 1.70775 0.59308 0.20577 
Au -7.06365 1.76129 5.29539 -0.206284 -0.966162 0.791672 
Au -5.40391 4.08452 5.96449 0.201066 1.21065 -4.58678 
Au -4.63949 0.4575 6.77061 -0.0147382 -10.3658 17.8551 
Au -6.28023 -1.92323 6.60467 0.60413 1.44879 -0.177287 
Au -4.53662 1.38337 4.96234 -0.423594 10.7755 -18.2608 
Au -6.86736 -0.56702 4.01609 5.0095 -21.8066 36.5244 
Au -5.52414 3.03586 7.87345 -0.39721 -3.32739 4.1729 
Au -7.07995 0.4345 8.36911 0.410227 0.144976 -2.03055 
Au -3.2648 -2.06975 7.24991 -0.957566 0.999703 -1.35195 
Au -4.18824 -1.56643 4.50541 -0.353188 0.53841 1.36725 
Au -2.0273 0.15485 5.53999 -13.1943 -0.0775394 -1.88851 
ITEM: TIMESTEP
1
ITEM: NUMBER OF ATOMS
26
ITEM: BOX BOUNDS ff ff ff
-1.5000000000000000e+01 1.5000000000000000e+01
-1.5000000000000000e+01 1.5000000000000000e+01
-1.5000000000000000e+01 1.5000000000000000e+01
ITEM: ATOMS element x y z fx fy fz 
Au 0.0296477 0.0187105 -0.00288954 7.02383 -0.421979 1.90947 
Au -8.86356 -0.558955 0.184968 1.84068 0.305792 -0.1657 
Au -7.04827 1.7693 -0.261573 1.40466 -0.415395 -0.0362097 
Au -5.40097 4.07757 -0.979446 -0.290931 -1.72124 0.729117 
Au -4.65769 0.471784 0.799204 -0.577303 -0.207625 -0.58852 
Au -6.28718 -1.92522 0.593228 0.533414 1.50906 -0.635168 
Au -4.54867 1.37819 -1.98046 -0.737249 -0.481903 1.45421 
Au -6.86615 -0.564073 -2.02292 0.693559 0.394071 1.63848 
Au -5.519 3.0426 1.88138 -0.318744 -1.13626 -1.29357 
Au -7.0896 0.440998 2.36578 -3.33187 18.0005 -30.7529 
Au -3.26578 -2.06314 1.25948 -1.09203 1.14344 -0.794854 
Au -4.19224 -1.5563 -1.5185 -0.693432 1.03721 1.19091 
Au -2.03399 0.141499 -0.565882 -8.19942 -0.0117785 -1.76127 
Au 0.0184102 0.00266075 6.01023 9.47526 -0.604436 2.22634 
Au -8.87784 -0.518179 6.18634 1.64381 0.523118 0.163475 
Au -7.07613 1.75518 5.29524 -0.0752399 -0.952098 0.791952 
Au -5.39407 4.09241 5.96951 0.286734 1.64007 -5.34213 
Au -4.63708 0.445032 6.79647 0.28234 -7.41128 12.5924 
Au -6.27691 -1.90705 6.60886 0.674013 1.41363 -0.163731 
Au -4.5436 1.37334 4.94052 -0.782126 7.83102 -13.0001 
Au -6.88254 -0.57701 4.03425 4.04163 -18.0441 30.2794 
Au -5.53018 3.05288 7.86395 -0.497264 -3.73089 4.93708 
Au -7.09952 0.430764 8.36852 0.503845 0.160302 -2.02352 
Au -3.25322 -2.08251 7.25331 -1.02763 0.996145 -1.35922 
Au -4.17676 -1.5776 4.51499 -0.347381 0.571471 1.30036 
Au -2.03454 0.13514 5.52612 -10.4332 -0.386861 -1.29637 
ITEM: TIMESTEP
2
ITEM: NUMBER OF ATOMS
26
ITEM: BOX BOUNDS ff ff ff
-1.5000000000000000e+01 1.5000000000000000e+01
-1.5000000000000000e+01 1.5000000000000000e+01
-1.5000000000000000e+01 1.5000000000000000e+01
ITEM: ATOMS element x y z fx fy fz 
Au 0.0606716 0.0373382 -0.00540493 4.50073 -0.19778 1.24371 
Au -8.84873 -0.581399 0.177323 1.84955 0.302769 -0.147424 
Au -7.03262 1.77723 -0.227763 1.34842 -0.437334 -0.113215 
Au -5.39809 4.07028 -0.994259 -0.26812 -1.70313 0.785267 
Au -4.676 0.486026 0.827682 -0.481587 -0.224653 -0.644382 
Au -6.29403 -1.92691 0.581661 0.518418 1.53355 -0.637962 
Au -4.56086 1.37292 -1.99829 -0.71007 -0.485414 1.49456 
Au -6.8648 -0.561048 -2.02942 0.714692 0.373982 1.63617 
Au -5.51391 3.04912 1.88905 -0.341697 -1.16437 -1.26733 
Au -7.0999 0.451023 2.35642 -2.24312 13.3631 -22.9803 
Au -3.26698 -2.05631 1.26889 -1.09399 1.1557 -0.791308 
Au -4.19639 -1.54597 -1.53135 -0.699304 0.985173 1.14883 
Au -2.04228 0.128146 -0.59212 -5.77185 -0.210435 -1.05816 
Au 0.0386769 0.00520307 6.02089 6.90852 -0.360317 1.67781 
Au -8.87732 -0.499806 6.18013 1.57999 0.460054 0.120761 
Au -7.08862 1.74889 5.29524 0.0509211 -0.939927 0.794268 
Au -5.38418 4.10063 5.97348 0.382072 2.05283 -6.06715 
Au -4.63461 0.431112 6.82479 0.442454 -5.03413 8.32063 
Au -6.27346 -1.8906 6.61302 0.75602 1.36597 -0.147445 
Au -4.55074 1.36485 4.91615 -0.997326 5.46371 -8.71645 
Au -6.89694 -0.590535 4.05834 2.9678 -13.3557 22.564 
Au -5.53632 3.06917 7.85542 -0.613047 -4.12019 5.67449 
Au -7.11899 0.42706 8.36754 0.599076 0.180191 -2.01087 
Au -3.24184 -2.09507 7.25644 -1.11131 0.982626 -1.36706 
Au -4.16535 -1.58867 4.52482 -0.345493 0.618633 1.2186 
Au -2.04383 0.115354 5.512 -7.94175 -0.604955 -0.730127 
ITEM: TIMESTEP
3
ITEM: NUMBER OF ATOMS
26
ITEM: BOX BOUNDS ff ff ff
-1.5000000000000000e+01 1.5000000000000000e+01
-1.5000000000000000e+01 1.5000000000000000e+01
-1.5000000000000000e+01 1.5000000000000000e+01
ITEM: ATOMS element x y z fx fy fz 
Au 0.0925774 0.0559273 -0.00767662 2.62002 -0.0743347 0.730506 
Au -8.83354 -0.603785 0.16965 1.85427 0.303713 -0.131482 
Au -7.0167 1.78508 -0.193975 1.22208 -0.51609 -0.245378 
Au -5.39527 4.06266 -1.00892 -0.219071 -1.67312 0.903392 
Au -4.69441 0.500225 0.856035 -0.39002 -0.259788 -0.691962 
Au -6.30077 -1.92831 0.569969 0.501038 1.55641 -0.636498 
Au -4.57319 1.36755 -2.01583 -0.644184 -0.4836 1.53571 
Au -6.86331 -0.55795 -2.03561 0.737365 0.352573 1.63159 
Au -5.5089 3.05541 1.89648 -0.366359 -1.17988 -1.254 
Au -7.11064 0.463666 2.34256 -1.27579 9.11327 -15.8044 
Au -3.26839 -2.04925 1.27815 -1.08841 1.16649 -0.788971 
Au -4.20066 -1.53545 -1.54398 -0.714222 0.918976 1.11201 
Au -2.05171 0.114752 -0.618564 -3.99294 -0.289582 -0.53487 
Au 0.0602974 0.00767478 6.03188 4.77078 -0.19478 1.19201 
Au -8.8765 -0.481342 6.17394 1.53416 0.413289 0.0860805 
Au -7.10111 1.74242 5.2954 0.163402 -0.928731 0.776517 
Au -5.37421 4.10924 5.97627 0.481999 2.41784 -6.70505 
Au -4.63206 0.416206 6.85474 0.493388 -3.29168 5.19688 
Au -6.26986 -1.87388 6.61715 0.848899 1.30224 -0.125815 
Au -4.55808 1.35742 4.89007 -1.09506 3.74186 -5.58462 
Au -6.91075 -0.606677 4.08685 2.04384 -9.01468 15.4655 
Au -5.54257 3.08465 7.848 -0.737042 -4.46256 6.32731 
Au -7.13834 0.423391 8.36616 0.683267 0.189201 -1.98128 
Au -3.23069 -2.10745 7.25931 -1.20759 0.959024 -1.37705 
Au -4.154 -1.59961 4.53489 -0.351276 0.673084 1.13801 
Au -2.05467 0.0954492 5.49774 -5.87255 -0.739142 -0.234153 
ITEM: TIMESTEP
4
ITEM: NUMBER OF ATOMS
26
ITEM: BOX BOUNDS ff ff ff
-1.5000000000000000e+01 1.5000000000000000e+01
-1.5000000000000000e+01 1.5000000000000000e+01
-1.5000000000000000e+01 1.5000000000000000e+01
ITEM: ATOMS element x y z fx fy fz 
Au 0.124997 0.0745017 -0.00980518 1.27956 -0.0168817 0.353107 
Au -8.81799 -0.626111 0.16195 1.86217 0.331465 -0.145077 
Au -7.00054 1.79282 -0.160235 0.98831 -0.682799 -0.469708 
Au -5.39248 4.05472 -1.0234 -0.139658 -1.62656 1.08288 
Au -4.71289 0.514373 0.884251 -0.286417 -0.320391 -0.74906 
Au -6.30742 -1.9294 0.558153 0.474162 1.57541 -0.625085 
Au -4.58565 1.36209 -2.03307 -0.54325 -0.469246 1.57747 
Au -6.86167 -0.554784 -2.04148 0.760809 0.330359 1.62605 
Au -5.50396 3.06147 1.90366 -0.398817 -1.19282 -1.24247 
Au -7.12164 0.478095 2.3256 -0.507894 5.91092 -10.2133 
Au -3.27001 -2.04197 1.28725 -1.07489 1.17411 -0.786131 
Au -4.20508 -1.52475 -1.55639 -0.741281 0.84104 1.08961 
Au -2.06192 0.101301 -0.645114 -2.75559 -0.28128 -0.172271 
Au 0.0828526 0.0101083 6.0431 3.0955 -0.0926212 0.79061 
Au -8.87537 -0.462798 6.16777 1.55652 0.393024 0.0926652 
Au -7.11356 1.73576 5.29571 0.244069 -0.91928 0.704109 
Au -5.36415 4.11833 5.97774 0.578685 2.70335 -7.19684 
Au -4.62941 0.400655 6.88571 0.472515 -2.0678 3.07739 
Au -6.26609 -1.85691 6.62125 0.924495 1.2271 -0.0855314 
Au -4.56562 1.35073 4.8629 -1.11056 2.54899 -3.45763 
Au -6.92415 -0.624585 4.11839 1.37833 -5.65719 9.99153 
Au -5.54897 3.09926 7.84181 -0.85918 -4.72431 6.83535 
Au -7.15756 0.41976 8.36439 0.734657 0.160459 -1.91715 
Au -3.21976 -2.11963 7.2619 -1.312 0.927021 -1.39035 
Au -4.14272 -1.61042 4.54518 -0.367782 0.735829 1.05441 
Au -2.06666 0.0753998 5.48343 -4.25248 -0.807907 0.175458 
ITEM: TIMESTEP
5
ITEM: NUMBER OF ATOMS
26
ITEM: BOX BOUNDS ff ff ff
-1.5000000000000000e+01 1.5000000000000000e+01
-1.5000000000000000e+01 1.5000000000000000e+01
-1.5000000000000000e+01 1.5000000000000000e+01
ITEM: ATOMS element x y z fx fy fz 
Au 0.157667 0.0930729 -0.0118646 0.346991 0.00113008 0.0824482 
Au -8.80207 -0.648372 0.154223 1.87728 0.407289 -0.221821 
Au -6.98419 1.80043 -0.126587 0.620666 -0.964039 -0.805176 
Au -5.38972 4.04645 -1.03767 -0.0289906 -1.55991 1.31209 
Au -4.73143 0.528459 0.912321 -0.166739 -0.387107 -0.812892 
Au -6.31397 -1.93018 0.546214 0.434067 1.59483 -0.599758 
Au -4.59821 1.35653 -2.05 -0.417669 -0.437439 1.62295 
Au -6.85989 -0.551552 -2.04702 0.783606 0.30807 1.6233 
Au -5.49909 3.06729 1.9106 -0.420703 -1.19251 -1.23543 
Au -7.13273 0.493682 2.30664 0.0888594 3.80051 -6.2611 
Au -3.27184 -2.03445 1.2962 -1.05603 1.17818 -0.782176 
Au -4.20964 -1.51388 -1.56858 -0.778958 0.742674 1.07793 
Au -2.07267 0.0877948 -0.671697 -1.9262 -0.212359 0.0677668 
Au 0.106014 0.0125237 6.05448 1.83858 -0.0361923 0.474667 
Au -8.87394 -0.444176 6.16161 1.70792 0.422826 0.182485 
Au -7.12597 1.72892 5.29615 0.269373 -0.914969 0.534875 
Au -5.35397 4.12795 5.9778 0.662602 2.88198 -7.49098 
Au -4.62667 0.384699 6.91729 0.411318 -1.20555 1.71009 
Au -6.26214 -1.83969 6.62534 0.949985 1.14986 -0.0136375 
Au -4.57339 1.34454 4.83505 -1.07546 1.71969 -2.07339 
Au -6.93729 -0.643602 4.15189 0.96513 -3.34732 6.20631 
Au -5.55554 3.11294 7.83697 -0.967892 -4.87629 7.1458 
Au -7.17664 0.416159 8.36225 0.725771 0.0581269 -1.7988 
Au -3.2091 -2.13163 7.26422 -1.41271 0.892792 -1.40748 
Au -4.13152 -1.62108 4.55568 -0.39918 0.808552 0.957841 
Au -2.07949 0.0551922 5.46916 -3.03162 -0.83283 0.504089 
