
     Program PWSCF v.6.1 starts on  4Oct2017 at 18:30:33 

     This program is part of the open-source Quantum ESPRESSO suite
     for quantum simulation of materials; please cite
         "P. Giannozzi et al., J. Phys.:Condens. Matter 21 395502 (2009);
          URL http://www.quantum-espresso.org", 
     in publications or presentations arising from this work. More details at
     http://www.quantum-espresso.org/quote

     Parallel version (MPI), running on    16 processors
     R & G space division:  proc/nbgrp/npool/nimage =      16
     Waiting for input...
     Reading input from standard input

     Current dimensions of program PWSCF are:
     Max number of different atomic species (ntypx) = 10
     Max number of k-points (npk) =  40000
     Max angular momentum in pseudopotentials (lmaxx) =  3
               file Au.pbe-dn-kjpaw_psl.0.1.UPF: wavefunction(s)  6S 6P 5D renormalized

     gamma-point specific algorithms are used

     Subspace diagonalization in iterative solution of the eigenvalue problem:
     one sub-group per band group will be used
     scalapack distributed-memory algorithm (size of sub-group:  2*  2 procs)


     Parallelization info
     --------------------
     sticks:   dense  smooth     PW     G-vecs:    dense   smooth      PW
     Min        1988     953    237               267006    88794   11090
     Max        1992     956    240               267010    88808   11098
     Sum       31845   15273   3809              4272141  1420755  177509



     bravais-lattice index     =            1
     lattice parameter (alat)  =      40.0000  a.u.
     unit-cell volume          =   64000.0000 (a.u.)^3
     number of atoms/cell      =           13
     number of atomic types    =            1
     number of electrons       =       143.00
     number of Kohn-Sham states=           86
     kinetic-energy cutoff     =      30.0000  Ry
     charge density cutoff     =     250.0000  Ry
     convergence threshold     =      1.0E-06
     mixing beta               =       0.1000
     number of iterations used =            8  plain     mixing
     Exchange-correlation      =  SLA  PW   PBX  PBC ( 1  4  3  4 0 0)
     nstep                     =            5

     Assuming isolated system, Martyna-Tuckerman method


     celldm(1)=  40.000000  celldm(2)=   0.000000  celldm(3)=   0.000000
     celldm(4)=   0.000000  celldm(5)=   0.000000  celldm(6)=   0.000000

     crystal axes: (cart. coord. in units of alat)
               a(1) = (   1.000000   0.000000   0.000000 )  
               a(2) = (   0.000000   1.000000   0.000000 )  
               a(3) = (   0.000000   0.000000   1.000000 )  

     reciprocal axes: (cart. coord. in units 2 pi/alat)
               b(1) = (  1.000000  0.000000  0.000000 )  
               b(2) = (  0.000000  1.000000  0.000000 )  
               b(3) = (  0.000000  0.000000  1.000000 )  


     PseudoPot. # 1 for Au read from file:
     /home/ralf_meyer/q-e/pseudo/Au.pbe-dn-kjpaw_psl.0.1.UPF
     MD5 check sum: 5c9b92683623e7ae2ab3f8e525febab6
     Pseudo is Projector augmented-wave + core cor, Zval = 11.0
     Generated using "atomic" code by A. Dal Corso  v.5.0.2 svn rev. 9415
     Shape of augmentation charge: PSQ
     Using radial grid of 1279 points,  6 beta functions with: 
                l(1) =   0
                l(2) =   0
                l(3) =   1
                l(4) =   1
                l(5) =   2
                l(6) =   2
     Q(r) pseudized with 0 coefficients 


     atomic species   valence    mass     pseudopotential
        Au            11.00   197.00000     Au( 1.00)

     No symmetry found



   Cartesian axes

     site n.     atom                  positions (alat units)
         1           Au  tau(   1) = (  -0.0000000   0.0000000   0.0000000  )
         2           Au  tau(   2) = (  -0.0000000   0.0726790   0.1065987  )
         3           Au  tau(   3) = (   0.0726790   0.1065987  -0.0000000  )
         4           Au  tau(   4) = (   0.1065987  -0.0000000   0.0726790  )
         5           Au  tau(   5) = (  -0.0726790   0.1065987  -0.0000000  )
         6           Au  tau(   6) = (  -0.1065987   0.0000000   0.0726790  )
         7           Au  tau(   7) = (  -0.0000000  -0.0726790   0.1065987  )
         8           Au  tau(   8) = (  -0.0726790  -0.1065987   0.0000000  )
         9           Au  tau(   9) = (   0.0726790  -0.1065987   0.0000000  )
        10           Au  tau(  10) = (   0.1065987   0.0000000  -0.0726790  )
        11           Au  tau(  11) = (  -0.0000000   0.0726790  -0.1065987  )
        12           Au  tau(  12) = (  -0.1065987   0.0000000  -0.0726790  )
        13           Au  tau(  13) = (  -0.0000000  -0.0726790  -0.1065987  )

     number of k points=     1  Methfessel-Paxton smearing, width (Ry)=  0.0100
                       cart. coord. in units 2pi/alat
        k(    1) = (   0.0000000   0.0000000   0.0000000), wk =   2.0000000

     Dense  grid:  2136071 G-vectors     FFT dimensions: ( 216, 216, 216)

     Smooth grid:   710378 G-vectors     FFT dimensions: ( 144, 144, 144)

     Estimated max dynamical RAM per process >     151.00MB

     Estimated total allocated dynamical RAM >    2416.07MB

     Initial potential from superposition of free atoms
     Check: negative starting charge=   -0.099677

     starting charge  142.99857, renormalised to  143.00000

     negative rho (up, down):  9.968E-02 0.000E+00
     Starting wfc are  117 randomized atomic wfcs
     Checking if some PAW data can be deallocated... 

     total cpu time spent up to now is       10.1 secs

     per-process dynamical memory:   200.2 Mb

     Self-consistent Calculation

     iteration #  1     ecut=    30.00 Ry     beta=0.10
     Davidson diagonalization with overlap
     ethr =  1.00E-02,  avg # of iterations =  3.0

     Threshold (ethr) on eigenvalues was too large:
     Diagonalizing with lowered threshold

     Davidson diagonalization with overlap
     ethr =  1.96E-04,  avg # of iterations =  6.0

     negative rho (up, down):  9.879E-02 0.000E+00

     total cpu time spent up to now is       26.2 secs

     total energy              =  -10075.71631963 Ry
     Harris-Foulkes estimate   =  -10075.78189613 Ry
     estimated scf accuracy    <       0.46603922 Ry

     iteration #  2     ecut=    30.00 Ry     beta=0.10
     Davidson diagonalization with overlap
     ethr =  3.26E-04,  avg # of iterations =  1.0

     negative rho (up, down):  1.102E-01 0.000E+00

     total cpu time spent up to now is       33.4 secs

     total energy              =  -10075.58812458 Ry
     Harris-Foulkes estimate   =  -10075.72494253 Ry
     estimated scf accuracy    <       0.30218060 Ry

     iteration #  3     ecut=    30.00 Ry     beta=0.10
     Davidson diagonalization with overlap
     ethr =  2.11E-04,  avg # of iterations =  3.0

     negative rho (up, down):  1.111E-01 0.000E+00

     total cpu time spent up to now is       41.3 secs

     total energy              =  -10075.63356499 Ry
     Harris-Foulkes estimate   =  -10075.63914752 Ry
     estimated scf accuracy    <       0.02900602 Ry

     iteration #  4     ecut=    30.00 Ry     beta=0.10
     Davidson diagonalization with overlap
     ethr =  2.03E-05,  avg # of iterations = 16.0

     negative rho (up, down):  1.094E-01 0.000E+00

     total cpu time spent up to now is       52.1 secs

     total energy              =  -10075.64719516 Ry
     Harris-Foulkes estimate   =  -10075.64816197 Ry
     estimated scf accuracy    <       0.00854233 Ry

     iteration #  5     ecut=    30.00 Ry     beta=0.10
     Davidson diagonalization with overlap
     ethr =  5.97E-06,  avg # of iterations = 16.0

     negative rho (up, down):  1.308E-01 0.000E+00

     total cpu time spent up to now is       61.3 secs

     total energy              =  -10075.64642934 Ry
     Harris-Foulkes estimate   =  -10075.64799052 Ry
     estimated scf accuracy    <       0.00540652 Ry

     iteration #  6     ecut=    30.00 Ry     beta=0.10
     Davidson diagonalization with overlap
     ethr =  3.78E-06,  avg # of iterations =  7.0

     negative rho (up, down):  1.252E-01 0.000E+00

     total cpu time spent up to now is       70.8 secs

     total energy              =  -10075.64951455 Ry
     Harris-Foulkes estimate   =  -10075.64871006 Ry
     estimated scf accuracy    <       0.00680035 Ry

     iteration #  7     ecut=    30.00 Ry     beta=0.10
     Davidson diagonalization with overlap
     ethr =  3.78E-06,  avg # of iterations =  1.0

     negative rho (up, down):  1.207E-01 0.000E+00

     total cpu time spent up to now is       78.4 secs

     total energy              =  -10075.64851472 Ry
     Harris-Foulkes estimate   =  -10075.64966947 Ry
     estimated scf accuracy    <       0.00956690 Ry

     iteration #  8     ecut=    30.00 Ry     beta=0.10
     Davidson diagonalization with overlap
     ethr =  3.78E-06,  avg # of iterations =  1.0

     negative rho (up, down):  1.219E-01 0.000E+00

     total cpu time spent up to now is       86.1 secs

     total energy              =  -10075.64556814 Ry
     Harris-Foulkes estimate   =  -10075.64865481 Ry
     estimated scf accuracy    <       0.00624017 Ry

     iteration #  9     ecut=    30.00 Ry     beta=0.10
     Davidson diagonalization with overlap
     ethr =  3.78E-06,  avg # of iterations =  3.0

     negative rho (up, down):  1.186E-01 0.000E+00

     total cpu time spent up to now is       95.4 secs

     total energy              =  -10075.64698529 Ry
     Harris-Foulkes estimate   =  -10075.64880078 Ry
     estimated scf accuracy    <       0.00431307 Ry

     iteration # 10     ecut=    30.00 Ry     beta=0.10
     Davidson diagonalization with overlap
     ethr =  3.02E-06,  avg # of iterations =  2.0

     negative rho (up, down):  1.177E-01 0.000E+00

     total cpu time spent up to now is      103.5 secs

     total energy              =  -10075.64759400 Ry
     Harris-Foulkes estimate   =  -10075.64755798 Ry
     estimated scf accuracy    <       0.00027813 Ry

     iteration # 11     ecut=    30.00 Ry     beta=0.10
     Davidson diagonalization with overlap
     ethr =  1.94E-07,  avg # of iterations =  4.0

     negative rho (up, down):  1.153E-01 0.000E+00

     total cpu time spent up to now is      113.4 secs

     total energy              =  -10075.64771833 Ry
     Harris-Foulkes estimate   =  -10075.64773864 Ry
     estimated scf accuracy    <       0.00010053 Ry

     iteration # 12     ecut=    30.00 Ry     beta=0.10
     Davidson diagonalization with overlap
     ethr =  7.03E-08,  avg # of iterations =  4.0

     negative rho (up, down):  1.129E-01 0.000E+00

     total cpu time spent up to now is      123.4 secs

     total energy              =  -10075.64779477 Ry
     Harris-Foulkes estimate   =  -10075.64776156 Ry
     estimated scf accuracy    <       0.00001382 Ry

     iteration # 13     ecut=    30.00 Ry     beta=0.10
     Davidson diagonalization with overlap
     ethr =  9.67E-09,  avg # of iterations =  5.0

     negative rho (up, down):  1.119E-01 0.000E+00

     total cpu time spent up to now is      133.3 secs

     total energy              =  -10075.64783260 Ry
     Harris-Foulkes estimate   =  -10075.64780334 Ry
     estimated scf accuracy    <       0.00000450 Ry

     iteration # 14     ecut=    30.00 Ry     beta=0.10
     Davidson diagonalization with overlap
     ethr =  3.15E-09,  avg # of iterations =  8.0

     negative rho (up, down):  1.107E-01 0.000E+00

     total cpu time spent up to now is      144.6 secs

     total energy              =  -10075.64785456 Ry
     Harris-Foulkes estimate   =  -10075.64784714 Ry
     estimated scf accuracy    <       0.00007629 Ry

     iteration # 15     ecut=    30.00 Ry     beta=0.10
     Davidson diagonalization with overlap
     ethr =  3.15E-09,  avg # of iterations =  5.0

     negative rho (up, down):  1.097E-01 0.000E+00

     total cpu time spent up to now is      154.2 secs

     total energy              =  -10075.64786902 Ry
     Harris-Foulkes estimate   =  -10075.64785767 Ry
     estimated scf accuracy    <       0.00002078 Ry

     iteration # 16     ecut=    30.00 Ry     beta=0.10
     Davidson diagonalization with overlap
     ethr =  3.15E-09,  avg # of iterations =  5.0

     negative rho (up, down):  1.066E-01 0.000E+00

     total cpu time spent up to now is      163.1 secs

     End of self-consistent calculation

          k = 0.0000 0.0000 0.0000 ( 88755 PWs)   bands (ev):

   -12.8261 -11.1633 -11.1633 -11.1633 -11.0496 -11.0495 -10.4365 -10.4364
   -10.4364  -9.7864  -9.5271  -9.3532  -9.3532  -9.3531  -9.2556  -9.2556
    -9.2556  -9.0070  -9.0070  -9.0070  -8.9940  -8.8750  -8.8750  -8.8749
    -8.7679  -8.7679  -8.7678  -8.5255  -8.5254  -8.2989  -8.2988  -8.2706
    -8.2706  -8.2706  -7.8097  -7.8097  -7.7853  -7.7853  -7.7853  -7.4073
    -7.4072  -7.4072  -7.3151  -7.3151  -7.3151  -7.1059  -7.0880  -7.0880
    -7.0879  -6.9316  -6.9316  -6.9316  -6.9272  -6.9272  -6.7520  -6.7466
    -6.7465  -6.7465  -6.6919  -6.6919  -6.6919  -6.6491  -6.6491  -6.6236
    -6.6236  -6.6236  -6.5057  -6.5057  -6.5057  -5.0278  -5.0278  -5.0278
    -4.8062  -4.8062  -3.8865  -3.0625  -3.0625  -3.0625  -2.0209  -1.7823
    -1.7823  -1.7823  -1.6145  -1.6145  -1.6145  -0.1876

     the Fermi energy is    -4.9631 ev

!    total energy              =  -10075.64796137 Ry
     Harris-Foulkes estimate   =  -10075.64787257 Ry
     estimated scf accuracy    <       0.00000024 Ry

     convergence has been achieved in  16 iterations

     negative rho (up, down):  1.066E-01 0.000E+00

     Forces acting on atoms (cartesian axes, Ry/au):

     atom    1 type  1   force =     0.00000100   -0.00000508    0.00000782
     atom    2 type  1   force =    -0.00000890    0.02559412    0.02081662
     atom    3 type  1   force =     0.02566036    0.02082491    0.00000735
     atom    4 type  1   force =     0.02079879   -0.00000716    0.02563198
     atom    5 type  1   force =    -0.02566155    0.02080785    0.00000426
     atom    6 type  1   force =    -0.02079831    0.00000980    0.02564273
     atom    7 type  1   force =     0.00000078   -0.02559907    0.02082915
     atom    8 type  1   force =    -0.02565616   -0.02081973   -0.00000732
     atom    9 type  1   force =     0.02566619   -0.02080628   -0.00000486
     atom   10 type  1   force =     0.02080363   -0.00000867   -0.02564440
     atom   11 type  1   force =     0.00000408    0.02560558   -0.02083315
     atom   12 type  1   force =    -0.02081047    0.00000365   -0.02562733
     atom   13 type  1   force =     0.00000055   -0.02559990   -0.02082286

     Total force =     0.114381     Total SCF correction =     0.001992

     Molecular Dynamics Calculation
pass
     Starting temperature  =  6000.00 K

     temperature is controlled by soft (Berendsen) velocity rescaling
     Characteristic time =  1*timestep
     mass Au               =   197.00
     Time step             =    50.00 a.u.,  2.4189 femto-seconds

     Entering Dynamics:    iteration =     1
                           time      =   0.0024 pico-seconds


     Soft (Berendsen) velocity rescaling

ATOMIC_POSITIONS (angstrom)
Au       0.006345508  -0.011041993  -0.023508938
Au       0.000057999   1.531950561   2.293464849
Au       1.548385383   2.257831560  -0.011430725
Au       2.251742744   0.006430914   1.536322710
Au      -1.551222454   2.262849025  -0.000860133
Au      -2.262145760   0.000670932   1.528987336
Au      -0.020968581  -1.528407393   2.263822448
Au      -1.528585330  -2.266860030  -0.000135838
Au       1.560879347  -2.244079280   0.003614884
Au       2.257649458   0.003989202  -1.522305291
Au       0.012859464   1.539659021  -2.258971698
Au      -2.256654397  -0.005045158  -1.552931435
Au      -0.018343381  -1.547947362  -2.256068169


     kinetic energy (Ekin) =     0.68403211 Ry
     temperature           =  6000.00000000 K 
     Ekin + Etot (const)   = ************** Ry

     Linear momentum :   -0.0000000000   -0.0000000000    0.0000000000

     Writing output data file md_run.save
     Check: negative starting charge=   -0.099677
     NEW-OLD atomic charge density approx. for the potential
     Check: negative starting charge=   -0.099396

     negative rho (up, down):  1.086E-01 0.000E+00

     total cpu time spent up to now is      176.3 secs

     per-process dynamical memory:   217.7 Mb

     Self-consistent Calculation

     iteration #  1     ecut=    30.00 Ry     beta=0.10
     Davidson diagonalization with overlap
     ethr =  1.00E-06,  avg # of iterations = 11.0

     negative rho (up, down):  1.083E-01 0.000E+00

     total cpu time spent up to now is      192.5 secs

     total energy              =  -10075.64954636 Ry
     Harris-Foulkes estimate   =  -10075.78431459 Ry
     estimated scf accuracy    <       0.00122822 Ry

     iteration #  2     ecut=    30.00 Ry     beta=0.10
     Davidson diagonalization with overlap
     ethr =  8.59E-07,  avg # of iterations =  1.0

     negative rho (up, down):  1.081E-01 0.000E+00

     total cpu time spent up to now is      199.7 secs

     total energy              =  -10075.64951637 Ry
     Harris-Foulkes estimate   =  -10075.64961722 Ry
     estimated scf accuracy    <       0.00044700 Ry

     iteration #  3     ecut=    30.00 Ry     beta=0.10
     Davidson diagonalization with overlap
     ethr =  3.13E-07,  avg # of iterations =  1.0

     negative rho (up, down):  1.083E-01 0.000E+00

     total cpu time spent up to now is      207.2 secs

     total energy              =  -10075.64946391 Ry
     Harris-Foulkes estimate   =  -10075.64954986 Ry
     estimated scf accuracy    <       0.00019308 Ry

     iteration #  4     ecut=    30.00 Ry     beta=0.10
     Davidson diagonalization with overlap
     ethr =  1.35E-07,  avg # of iterations =  4.0

     negative rho (up, down):  1.080E-01 0.000E+00

     total cpu time spent up to now is      215.8 secs

     total energy              =  -10075.64951363 Ry
     Harris-Foulkes estimate   =  -10075.64952238 Ry
     estimated scf accuracy    <       0.00006859 Ry

     iteration #  5     ecut=    30.00 Ry     beta=0.10
     Davidson diagonalization with overlap
     ethr =  4.80E-08,  avg # of iterations =  3.0

     negative rho (up, down):  1.089E-01 0.000E+00

     total cpu time spent up to now is      223.7 secs

     total energy              =  -10075.64948441 Ry
     Harris-Foulkes estimate   =  -10075.64952291 Ry
     estimated scf accuracy    <       0.00004268 Ry

     iteration #  6     ecut=    30.00 Ry     beta=0.10
     Davidson diagonalization with overlap
     ethr =  2.98E-08,  avg # of iterations =  3.0

     negative rho (up, down):  1.088E-01 0.000E+00

     total cpu time spent up to now is      231.8 secs

     total energy              =  -10075.64948714 Ry
     Harris-Foulkes estimate   =  -10075.64949082 Ry
     estimated scf accuracy    <       0.00001148 Ry

     iteration #  7     ecut=    30.00 Ry     beta=0.10
     Davidson diagonalization with overlap
     ethr =  8.03E-09,  avg # of iterations =  4.0

     negative rho (up, down):  1.086E-01 0.000E+00

     total cpu time spent up to now is      240.5 secs

     total energy              =  -10075.64949007 Ry
     Harris-Foulkes estimate   =  -10075.64948972 Ry
     estimated scf accuracy    <       0.00000378 Ry

     iteration #  8     ecut=    30.00 Ry     beta=0.10
     Davidson diagonalization with overlap
     ethr =  2.64E-09,  avg # of iterations =  4.0

     negative rho (up, down):  1.083E-01 0.000E+00

     total cpu time spent up to now is      249.4 secs

     total energy              =  -10075.64949363 Ry
     Harris-Foulkes estimate   =  -10075.64949122 Ry
     estimated scf accuracy    <       0.00000156 Ry

     iteration #  9     ecut=    30.00 Ry     beta=0.10
     Davidson diagonalization with overlap
     ethr =  1.09E-09,  avg # of iterations =  3.0

     negative rho (up, down):  1.062E-01 0.000E+00

     total cpu time spent up to now is      256.7 secs

     End of self-consistent calculation

          k = 0.0000 0.0000 0.0000 ( 88755 PWs)   bands (ev):

   -12.7878 -11.1529 -11.1251 -11.1108 -11.0371 -10.9952 -10.4281 -10.4091
   -10.3775  -9.7624  -9.4993  -9.3430  -9.3326  -9.3156  -9.2533  -9.2421
    -9.2045  -9.0070  -8.9912  -8.9809  -8.9493  -8.8812  -8.8487  -8.8346
    -8.7770  -8.7526  -8.7095  -8.5119  -8.5043  -8.3070  -8.2912  -8.2624
    -8.2419  -8.2210  -7.8124  -7.8006  -7.7950  -7.7729  -7.7467  -7.4045
    -7.3987  -7.3895  -7.3160  -7.3079  -7.2998  -7.1036  -7.0861  -7.0835
    -7.0723  -6.9373  -6.9338  -6.9279  -6.9198  -6.9136  -6.7568  -6.7458
    -6.7445  -6.7396  -6.6964  -6.6890  -6.6829  -6.6568  -6.6405  -6.6254
    -6.6197  -6.6088  -6.5129  -6.5053  -6.4973  -5.0383  -5.0278  -5.0133
    -4.8242  -4.7896  -3.8881  -3.0861  -3.0712  -3.0624  -2.0174  -1.7916
    -1.7836  -1.7733  -1.6329  -1.6153  -1.5986  -0.2034

     the Fermi energy is    -4.9617 ev

!    total energy              =  -10075.64951496 Ry
     Harris-Foulkes estimate   =  -10075.64949387 Ry
     estimated scf accuracy    <       0.00000056 Ry

     convergence has been achieved in   9 iterations

     negative rho (up, down):  1.062E-01 0.000E+00

     Forces acting on atoms (cartesian axes, Ry/au):

     atom    1 type  1   force =    -0.00881409    0.01163955    0.01717414
     atom    2 type  1   force =     0.00173802    0.02086163    0.00627613
     atom    3 type  1   force =     0.01955954    0.01989392    0.00349361
     atom    4 type  1   force =     0.01887219    0.00100066    0.02730088
     atom    5 type  1   force =    -0.02096662    0.01302201    0.00195102
     atom    6 type  1   force =    -0.01633293    0.00117573    0.02166146
     atom    7 type  1   force =     0.00009270   -0.02355606    0.01553539
     atom    8 type  1   force =    -0.02560401   -0.01996797    0.00280349
     atom    9 type  1   force =     0.02540996   -0.02422796    0.00093565
     atom   10 type  1   force =     0.02507591   -0.00121768   -0.02935142
     atom   11 type  1   force =    -0.00050444    0.02650202   -0.01992800
     atom   12 type  1   force =    -0.01959379    0.00190058   -0.02274715
     atom   13 type  1   force =     0.00106757   -0.02702645   -0.02510520

     Total force =     0.110360     Total SCF correction =     0.002203

     Entering Dynamics:    iteration =     2
                           time      =   0.0048 pico-seconds


     Soft (Berendsen) velocity rescaling

ATOMIC_POSITIONS (angstrom)
Au       0.012626074  -0.021998227  -0.046891339
Au       0.000128804   1.525652609   2.330590831
Au       1.558512659   2.259424587  -0.022835709
Au       2.247239426   0.012869201   1.534444352
Au      -1.564197169   2.269408886  -0.001705891
Au      -2.268026749   0.001350527   1.519732054
Au      -0.041936479  -1.518586126   2.271374250
Au      -1.518957090  -2.277482073  -0.000251020
Au       1.583543694  -2.231951960   0.007236661
Au       2.259098563   0.007969433  -1.506424622
Au       0.025715212   1.541111088  -2.261705113
Au      -2.257068050  -0.010076313  -1.567628251
Au      -0.036678896  -1.557691633  -2.255936202


     kinetic energy (Ekin) =     0.68562352 Ry
     temperature           =  6013.95904568 K 
     Ekin + Etot (const)   = ************** Ry

     Linear momentum :    0.0000000000   -0.0000000000   -0.0000000000

     Writing output data file md_run.save

     first order wave-functions extrapolation
     Check: negative starting charge=   -0.099396
     first order charge density extrapolation
     Check: negative starting charge=   -0.099083

     negative rho (up, down):  1.082E-01 0.000E+00

     total cpu time spent up to now is      273.6 secs

     per-process dynamical memory:   217.7 Mb

     Self-consistent Calculation

     iteration #  1     ecut=    30.00 Ry     beta=0.10
     Davidson diagonalization with overlap
     ethr =  1.00E-06,  avg # of iterations =  4.0

     Threshold (ethr) on eigenvalues was too large:
     Diagonalizing with lowered threshold

     Davidson diagonalization with overlap
     ethr =  2.60E-08,  avg # of iterations =  4.0

     negative rho (up, down):  1.080E-01 0.000E+00

     total cpu time spent up to now is      291.3 secs

     total energy              =  -10075.64886390 Ry
     Harris-Foulkes estimate   =  -10075.38523728 Ry
     estimated scf accuracy    <       0.00004374 Ry

     iteration #  2     ecut=    30.00 Ry     beta=0.10
     Davidson diagonalization with overlap
     ethr =  3.06E-08,  avg # of iterations =  1.0

     negative rho (up, down):  1.078E-01 0.000E+00

     total cpu time spent up to now is      298.5 secs

     total energy              =  -10075.64880321 Ry
     Harris-Foulkes estimate   =  -10075.64886582 Ry
     estimated scf accuracy    <       0.00001872 Ry

     iteration #  3     ecut=    30.00 Ry     beta=0.10
     Davidson diagonalization with overlap
     ethr =  1.31E-08,  avg # of iterations =  2.0

     negative rho (up, down):  1.076E-01 0.000E+00

     total cpu time spent up to now is      305.9 secs

     total energy              =  -10075.64874799 Ry
     Harris-Foulkes estimate   =  -10075.64880500 Ry
     estimated scf accuracy    <       0.00000798 Ry

     iteration #  4     ecut=    30.00 Ry     beta=0.10
     Davidson diagonalization with overlap
     ethr =  5.58E-09,  avg # of iterations =  3.0

     negative rho (up, down):  1.075E-01 0.000E+00

     total cpu time spent up to now is      314.1 secs

     total energy              =  -10075.64871470 Ry
     Harris-Foulkes estimate   =  -10075.64874949 Ry
     estimated scf accuracy    <       0.00000334 Ry

     iteration #  5     ecut=    30.00 Ry     beta=0.10
     Davidson diagonalization with overlap
     ethr =  2.34E-09,  avg # of iterations =  3.0

     negative rho (up, down):  1.074E-01 0.000E+00

     total cpu time spent up to now is      321.9 secs

     total energy              =  -10075.64869458 Ry
     Harris-Foulkes estimate   =  -10075.64871512 Ry
     estimated scf accuracy    <       0.00000175 Ry

     iteration #  6     ecut=    30.00 Ry     beta=0.10
     Davidson diagonalization with overlap
     ethr =  1.23E-09,  avg # of iterations =  4.0

     negative rho (up, down):  1.059E-01 0.000E+00

     total cpu time spent up to now is      329.3 secs

     End of self-consistent calculation

          k = 0.0000 0.0000 0.0000 ( 88755 PWs)   bands (ev):

   -12.7548 -11.1494 -11.1016 -11.0711 -11.0292 -10.9521 -10.4193 -10.3806
   -10.3170  -9.7466  -9.4768  -9.3329  -9.3169  -9.2978  -9.2504  -9.2305
    -9.1613  -9.0049  -8.9834  -8.9677  -8.9138  -8.8709  -8.8286  -8.8048
    -8.7854  -8.7389  -8.6526  -8.4966  -8.4824  -8.3267  -8.2952  -8.2550
    -8.2136  -8.1661  -7.8197  -7.8068  -7.7915  -7.7542  -7.7093  -7.4038
    -7.3895  -7.3713  -7.3197  -7.3066  -7.2899  -7.1060  -7.0868  -7.0819
    -7.0585  -6.9460  -6.9397  -6.9292  -6.9127  -6.9003  -6.7661  -6.7480
    -6.7448  -6.7342  -6.7002  -6.6881  -6.6785  -6.6650  -6.6354  -6.6273
    -6.6133  -6.5951  -6.5205  -6.5062  -6.4910  -5.0511  -5.0302  -5.0006
    -4.8423  -4.7753  -3.8913  -3.1103  -3.0814  -3.0644  -2.0164  -1.8025
    -1.7855  -1.7662  -1.6502  -1.6162  -1.5839  -0.2210

     the Fermi energy is    -4.9622 ev

!    total energy              =  -10075.64868544 Ry
     Harris-Foulkes estimate   =  -10075.64869479 Ry
     estimated scf accuracy    <       0.00000094 Ry

     convergence has been achieved in   6 iterations

     negative rho (up, down):  1.059E-01 0.000E+00

     Forces acting on atoms (cartesian axes, Ry/au):

     atom    1 type  1   force =    -0.01783824    0.02158385    0.03251801
     atom    2 type  1   force =     0.00325406    0.01672989   -0.00448821
     atom    3 type  1   force =     0.01442576    0.01966122    0.00684291
     atom    4 type  1   force =     0.01656360    0.00247754    0.02873790
     atom    5 type  1   force =    -0.01723266    0.00626834    0.00325919
     atom    6 type  1   force =    -0.01222525    0.00241093    0.01711324
     atom    7 type  1   force =     0.00005108   -0.02112982    0.01109674
     atom    8 type  1   force =    -0.02543450   -0.01929709    0.00552067
     atom    9 type  1   force =     0.02580116   -0.02818123    0.00209122
     atom   10 type  1   force =     0.03018539   -0.00229872   -0.03315108
     atom   11 type  1   force =    -0.00109832    0.02721074   -0.01956524
     atom   12 type  1   force =    -0.01871954    0.00374788   -0.01987427
     atom   13 type  1   force =     0.00226748   -0.02918352   -0.03010108

     Total force =     0.115935     Total SCF correction =     0.000866

     Entering Dynamics:    iteration =     3
                           time      =   0.0073 pico-seconds


     Soft (Berendsen) velocity rescaling

ATOMIC_POSITIONS (angstrom)
Au       0.018767916  -0.032782710  -0.070006997
Au       0.000223503   1.519485236   2.367640632
Au       1.568734464   2.261160626  -0.034177031
Au       2.242863377   0.019318267   1.532779913
Au      -1.577283786   2.276007314  -0.002526653
Au      -2.273990984   0.002047097   1.510613607
Au      -0.062879652  -1.508931947   2.278999042
Au      -1.509527429  -2.288233960  -0.000325393
Au       1.606371823  -2.220046359   0.010869640
Au       2.260768389   0.011928105  -1.490806648
Au       0.038547939   1.542761955  -2.264579510
Au      -2.257619147  -0.015074012  -1.582454432
Au      -0.054976412  -1.567639610  -2.256026170


     kinetic energy (Ekin) =     0.68324587 Ry
     temperature           =  5993.10343034 K 
     Ekin + Etot (const)   = ************** Ry

     Linear momentum :   -0.0000000000   -0.0000000000    0.0000000000

     Writing output data file md_run.save

     second order wave-functions extrapolation
     Check: negative starting charge=   -0.099083
     second order charge density extrapolation
     Check: negative starting charge=   -0.098957

     negative rho (up, down):  1.081E-01 0.000E+00

     total cpu time spent up to now is      346.8 secs

     per-process dynamical memory:   217.7 Mb

     Self-consistent Calculation

     iteration #  1     ecut=    30.00 Ry     beta=0.10
     Davidson diagonalization with overlap
     ethr =  1.00E-06,  avg # of iterations =  4.0

     Threshold (ethr) on eigenvalues was too large:
     Diagonalizing with lowered threshold

     Davidson diagonalization with overlap
     ethr =  1.62E-08,  avg # of iterations =  6.0

     negative rho (up, down):  1.079E-01 0.000E+00

     total cpu time spent up to now is      364.8 secs

     total energy              =  -10075.64609564 Ry
     Harris-Foulkes estimate   =  -10075.38372078 Ry
     estimated scf accuracy    <       0.00003294 Ry

     iteration #  2     ecut=    30.00 Ry     beta=0.10
     Davidson diagonalization with overlap
     ethr =  2.30E-08,  avg # of iterations =  1.0

     negative rho (up, down):  1.077E-01 0.000E+00

     total cpu time spent up to now is      372.0 secs

     total energy              =  -10075.64602681 Ry
     Harris-Foulkes estimate   =  -10075.64609691 Ry
     estimated scf accuracy    <       0.00001748 Ry

     iteration #  3     ecut=    30.00 Ry     beta=0.10
     Davidson diagonalization with overlap
     ethr =  1.22E-08,  avg # of iterations =  4.0

     negative rho (up, down):  1.075E-01 0.000E+00

     total cpu time spent up to now is      379.9 secs

     total energy              =  -10075.64598322 Ry
     Harris-Foulkes estimate   =  -10075.64602887 Ry
     estimated scf accuracy    <       0.00000650 Ry

     iteration #  4     ecut=    30.00 Ry     beta=0.10
     Davidson diagonalization with overlap
     ethr =  4.54E-09,  avg # of iterations =  3.0

     negative rho (up, down):  1.074E-01 0.000E+00

     total cpu time spent up to now is      387.8 secs

     total energy              =  -10075.64594831 Ry
     Harris-Foulkes estimate   =  -10075.64598441 Ry
     estimated scf accuracy    <       0.00000309 Ry

     iteration #  5     ecut=    30.00 Ry     beta=0.10
     Davidson diagonalization with overlap
     ethr =  2.16E-09,  avg # of iterations =  3.0

     negative rho (up, down):  1.073E-01 0.000E+00

     total cpu time spent up to now is      395.8 secs

     total energy              =  -10075.64593415 Ry
     Harris-Foulkes estimate   =  -10075.64594876 Ry
     estimated scf accuracy    <       0.00000150 Ry

     iteration #  6     ecut=    30.00 Ry     beta=0.10
     Davidson diagonalization with overlap
     ethr =  1.05E-09,  avg # of iterations =  5.0

     negative rho (up, down):  1.059E-01 0.000E+00

     total cpu time spent up to now is      403.2 secs

     End of self-consistent calculation

          k = 0.0000 0.0000 0.0000 ( 88755 PWs)   bands (ev):

   -12.7240 -11.1486 -11.0871 -11.0438 -11.0137 -10.9136 -10.4086 -10.3486
   -10.2541  -9.7355  -9.4582  -9.3208  -9.3030  -9.2977  -9.2393  -9.2141
    -9.1235  -8.9992  -8.9789  -8.9548  -8.9120  -8.8366  -8.8006  -8.7939
    -8.7686  -8.7224  -8.6003  -8.4759  -8.4573  -8.3460  -8.2962  -8.2464
    -8.1855  -8.1154  -7.8226  -7.8097  -7.7823  -7.7316  -7.6710  -7.4025
    -7.3761  -7.3529  -7.3206  -7.3054  -7.2806  -7.1096  -7.0863  -7.0796
    -7.0436  -6.9548  -6.9431  -6.9277  -6.9059  -6.8863  -6.7738  -6.7500
    -6.7436  -6.7289  -6.7006  -6.6852  -6.6781  -6.6638  -6.6293  -6.6234
    -6.6042  -6.5807  -6.5245  -6.5041  -6.4833  -5.0635  -5.0326  -4.9874
    -4.8579  -4.7611  -3.8939  -3.1332  -3.0911  -3.0665  -2.0160  -1.8135
    -1.7863  -1.7595  -1.6642  -1.6151  -1.5685  -0.2399

     the Fermi energy is    -4.9621 ev

!    total energy              =  -10075.64592029 Ry
     Harris-Foulkes estimate   =  -10075.64593428 Ry
     estimated scf accuracy    <       0.00000092 Ry

     convergence has been achieved in   6 iterations

     negative rho (up, down):  1.059E-01 0.000E+00

     Forces acting on atoms (cartesian axes, Ry/au):

     atom    1 type  1   force =    -0.02687022    0.03018303    0.04693401
     atom    2 type  1   force =     0.00520579    0.01274445   -0.01265856
     atom    3 type  1   force =     0.01004765    0.01999123    0.00946816
     atom    4 type  1   force =     0.01428490    0.00400076    0.02992148
     atom    5 type  1   force =    -0.01453600    0.00022496    0.00403838
     atom    6 type  1   force =    -0.00843612    0.00367788    0.01269671
     atom    7 type  1   force =    -0.00008807   -0.01867181    0.00715926
     atom    8 type  1   force =    -0.02532810   -0.01860887    0.00830192
     atom    9 type  1   force =     0.02611082   -0.03236724    0.00298216
     atom   10 type  1   force =     0.03606276   -0.00321780   -0.03706589
     atom   11 type  1   force =    -0.00161869    0.02764976   -0.01954319
     atom   12 type  1   force =    -0.01786814    0.00559921   -0.01666483
     atom   13 type  1   force =     0.00303340   -0.03120557   -0.03556961

     Total force =     0.127554     Total SCF correction =     0.001069

     Entering Dynamics:    iteration =     4
                           time      =   0.0097 pico-seconds


     Soft (Berendsen) velocity rescaling

ATOMIC_POSITIONS (angstrom)
Au       0.024715313  -0.043351011  -0.092790146
Au       0.000356612   1.513408215   2.404618477
Au       1.579036179   2.263044958  -0.045455116
Au       2.238590061   0.025800518   1.531334976
Au      -1.590485031   2.282611194  -0.003318133
Au      -2.280020806   0.002771165   1.501583464
Au      -0.083835520  -1.499409787   2.286680969
Au      -1.500278960  -2.299129140  -0.000338640
Au       1.629405465  -2.208372389   0.014526682
Au       2.262704884   0.015865345  -1.475452790
Au       0.051376121   1.544617492  -2.267599552
Au      -2.258302212  -0.020033331  -1.597411927
Au      -0.073262104  -1.577823230  -2.256378264


     kinetic energy (Ekin) =     0.68131089 Ry
     temperature           =  5976.13076142 K 
     Ekin + Etot (const)   = ************** Ry

     Linear momentum :   -0.0000000000   -0.0000000000   -0.0000000000

     Writing output data file md_run.save

     second order wave-functions extrapolation
     Check: negative starting charge=   -0.098957
     second order charge density extrapolation
     Check: negative starting charge=   -0.098892

     negative rho (up, down):  1.060E-01 0.000E+00

     total cpu time spent up to now is      421.7 secs

     per-process dynamical memory:   217.7 Mb

     Self-consistent Calculation

     iteration #  1     ecut=    30.00 Ry     beta=0.10
     Davidson diagonalization with overlap
     WARNING:     1 eigenvalues not converged
     c_bands:  1 eigenvalues not converged
     ethr =  1.00E-06,  avg # of iterations = 20.0

     Threshold (ethr) on eigenvalues was too large:
     Diagonalizing with lowered threshold

     Davidson diagonalization with overlap
     ethr =  8.21E-09,  avg # of iterations = 17.0

     negative rho (up, down):  1.060E-01 0.000E+00

     total cpu time spent up to now is      441.2 secs

     total energy              =  -10075.64162573 Ry
     Harris-Foulkes estimate   =  -10075.65896616 Ry
     estimated scf accuracy    <       0.00001936 Ry

     iteration #  2     ecut=    30.00 Ry     beta=0.10
     Davidson diagonalization with overlap
     ethr =  1.35E-08,  avg # of iterations =  1.0

     negative rho (up, down):  1.060E-01 0.000E+00

     total cpu time spent up to now is      448.4 secs

     total energy              =  -10075.64162405 Ry
     Harris-Foulkes estimate   =  -10075.64162649 Ry
     estimated scf accuracy    <       0.00000668 Ry

     iteration #  3     ecut=    30.00 Ry     beta=0.10
     Davidson diagonalization with overlap
     ethr =  4.67E-09,  avg # of iterations =  3.0

     negative rho (up, down):  1.059E-01 0.000E+00

     total cpu time spent up to now is      455.8 secs

     End of self-consistent calculation

          k = 0.0000 0.0000 0.0000 ( 88755 PWs)   bands (ev):

   -12.6946 -11.1501 -11.0810 -11.0314 -10.9854 -10.8783 -10.3961 -10.3137
   -10.1907  -9.7287  -9.4443  -9.3213  -9.2996  -9.2845  -9.2273  -9.1916
    -9.0901  -8.9978  -8.9715  -8.9419  -8.9111  -8.8285  -8.7958  -8.7450
    -8.7345  -8.7024  -8.5563  -8.4518  -8.4320  -8.3607  -8.2925  -8.2364
    -8.1572  -8.0731  -7.8195  -7.8071  -7.7690  -7.7061  -7.6326  -7.4011
    -7.3600  -7.3469  -7.3132  -7.2980  -7.2710  -7.1145  -7.0848  -7.0763
    -7.0290  -6.9636  -6.9451  -6.9235  -6.8992  -6.8723  -6.7797  -6.7518
    -6.7416  -6.7252  -6.6992  -6.6833  -6.6768  -6.6566  -6.6224  -6.6129
    -6.5935  -6.5673  -6.5249  -6.4988  -6.4745  -5.0758  -5.0357  -4.9737
    -4.8711  -4.7473  -3.8962  -3.1549  -3.1007  -3.0686  -2.0162  -1.8241
    -1.7859  -1.7539  -1.6746  -1.6123  -1.5526  -0.3020

     the Fermi energy is    -4.9614 ev

!    total energy              =  -10075.64162518 Ry
     Harris-Foulkes estimate   =  -10075.64162526 Ry
     estimated scf accuracy    <       0.00000099 Ry

     convergence has been achieved in   3 iterations

     negative rho (up, down):  1.059E-01 0.000E+00

     Forces acting on atoms (cartesian axes, Ry/au):

     atom    1 type  1   force =    -0.03596396    0.03756777    0.05975698
     atom    2 type  1   force =     0.00732314    0.00878549   -0.01806505
     atom    3 type  1   force =     0.00627499    0.02080878    0.01172035
     atom    4 type  1   force =     0.01176499    0.00579095    0.03067197
     atom    5 type  1   force =    -0.01256517   -0.00505029    0.00440991
     atom    6 type  1   force =    -0.00501183    0.00479966    0.00780558
     atom    7 type  1   force =    -0.00050516   -0.01604624    0.00373912
     atom    8 type  1   force =    -0.02497624   -0.01787805    0.01114158
     atom    9 type  1   force =     0.02661666   -0.03654649    0.00401915
     atom   10 type  1   force =     0.04239526   -0.00400302   -0.04087719
     atom   11 type  1   force =    -0.00197886    0.02775620   -0.01980411
     atom   12 type  1   force =    -0.01699476    0.00729177   -0.01323135
     atom   13 type  1   force =     0.00362094   -0.03327654   -0.04128694

     Total force =     0.141985     Total SCF correction =     0.002879

     Entering Dynamics:    iteration =     5
                           time      =   0.0121 pico-seconds


     Soft (Berendsen) velocity rescaling

ATOMIC_POSITIONS (angstrom)
Au       0.030409596  -0.053663599  -0.115178464
Au       0.000543942   1.507383801   2.441536993
Au       1.589404679   2.265086366  -0.056669347
Au       2.234394903   0.032338370   1.530113145
Au      -1.603805193   2.289191040  -0.004078700
Au      -2.286099585   0.003532041   1.492592817
Au      -0.104836919  -1.489986857   2.294405771
Au      -1.491196062  -2.310177781  -0.000269824
Au       1.652681170  -2.196944401   0.018220632
Au       2.264957606   0.019780947  -1.460369479
Au       0.064215316   1.546681238  -2.270771535
Au      -2.259111855  -0.024948819  -1.612496750
Au      -0.091557598  -1.588272346  -2.257035259


     kinetic energy (Ekin) =     0.67978517 Ry
     temperature           =  5962.74781967 K 
     Ekin + Etot (const)   = ************** Ry

     Linear momentum :   -0.0000000000   -0.0000000000   -0.0000000000

     Writing output data file md_run.save

     second order wave-functions extrapolation
     Check: negative starting charge=   -0.098892
     second order charge density extrapolation
     Check: negative starting charge=   -0.098527

     negative rho (up, down):  1.057E-01 0.000E+00

     total cpu time spent up to now is      473.1 secs

     per-process dynamical memory:   217.7 Mb

     Self-consistent Calculation

     iteration #  1     ecut=    30.00 Ry     beta=0.10
     Davidson diagonalization with overlap
     WARNING:     1 eigenvalues not converged
     c_bands:  1 eigenvalues not converged
     ethr =  1.00E-06,  avg # of iterations = 20.0

     Threshold (ethr) on eigenvalues was too large:
     Diagonalizing with lowered threshold

     Davidson diagonalization with overlap
     ethr =  2.17E-08,  avg # of iterations =  4.0

     negative rho (up, down):  1.057E-01 0.000E+00

     total cpu time spent up to now is      489.4 secs

     total energy              =  -10075.63617536 Ry
     Harris-Foulkes estimate   =  -10075.65583627 Ry
     estimated scf accuracy    <       0.00003340 Ry

     iteration #  2     ecut=    30.00 Ry     beta=0.10
     Davidson diagonalization with overlap
     ethr =  2.34E-08,  avg # of iterations =  1.0

     negative rho (up, down):  1.057E-01 0.000E+00

     total cpu time spent up to now is      496.6 secs

     total energy              =  -10075.63617517 Ry
     Harris-Foulkes estimate   =  -10075.63617732 Ry
     estimated scf accuracy    <       0.00000883 Ry

     iteration #  3     ecut=    30.00 Ry     beta=0.10
     Davidson diagonalization with overlap
     ethr =  6.18E-09,  avg # of iterations =  1.0

     negative rho (up, down):  1.057E-01 0.000E+00

     total cpu time spent up to now is      503.9 secs

     total energy              =  -10075.63617394 Ry
     Harris-Foulkes estimate   =  -10075.63617586 Ry
     estimated scf accuracy    <       0.00000352 Ry

     iteration #  4     ecut=    30.00 Ry     beta=0.10
     Davidson diagonalization with overlap
     ethr =  2.46E-09,  avg # of iterations =  4.0

     negative rho (up, down):  1.057E-01 0.000E+00

     total cpu time spent up to now is      512.2 secs

     End of self-consistent calculation

          k = 0.0000 0.0000 0.0000 ( 88755 PWs)   bands (ev):

   -12.6683 -11.1564 -11.0828 -11.0257 -10.9558 -10.8470 -10.3842 -10.2779
   -10.1291  -9.7268  -9.4371  -9.3354  -9.2968  -9.2656  -9.2160  -9.1669
    -9.0607  -9.0041  -8.9582  -8.9319  -8.9045  -8.8304  -8.7848  -8.7239
    -8.6889  -8.6648  -8.5210  -8.4291  -8.4152  -8.3644  -8.2808  -8.2252
    -8.1289  -8.0415  -7.8119  -7.7987  -7.7518  -7.6783  -7.5953  -7.4011
    -7.3540  -7.3425  -7.3062  -7.2781  -7.2593  -7.1205  -7.0825  -7.0726
    -7.0157  -6.9723  -6.9466  -6.9177  -6.8932  -6.8586  -6.7842  -6.7542
    -6.7400  -6.7247  -6.6975  -6.6835  -6.6713  -6.6492  -6.6120  -6.5998
    -6.5817  -6.5558  -6.5220  -6.4903  -6.4651  -5.0882  -5.0395  -4.9594
    -4.8820  -4.7342  -3.8985  -3.1753  -3.1102  -3.0706  -2.0171  -1.8349
    -1.7849  -1.7506  -1.6813  -1.6082  -1.5364  -0.3315

     the Fermi energy is    -4.9599 ev

!    total energy              =  -10075.63617507 Ry
     Harris-Foulkes estimate   =  -10075.63617509 Ry
     estimated scf accuracy    <       0.00000084 Ry

     convergence has been achieved in   4 iterations

     negative rho (up, down):  1.057E-01 0.000E+00

     Forces acting on atoms (cartesian axes, Ry/au):

     atom    1 type  1   force =    -0.04488984    0.04393665    0.07213368
     atom    2 type  1   force =     0.00957109    0.00525763   -0.02194255
     atom    3 type  1   force =     0.00357300    0.02235462    0.01337875
     atom    4 type  1   force =     0.01007206    0.00749895    0.03195987
     atom    5 type  1   force =    -0.01184435   -0.00964686    0.00432282
     atom    6 type  1   force =    -0.00247612    0.00599494    0.00392294
     atom    7 type  1   force =    -0.00069156   -0.01372584    0.00131817
     atom    8 type  1   force =    -0.02528436   -0.01745755    0.01386595
     atom    9 type  1   force =     0.02706009   -0.04114673    0.00452342
     atom   10 type  1   force =     0.04974636   -0.00469179   -0.04532748
     atom   11 type  1   force =    -0.00241209    0.02795225   -0.02066883
     atom   12 type  1   force =    -0.01642020    0.00908150   -0.00982756
     atom   13 type  1   force =     0.00399592   -0.03540779   -0.04765918

     Total force =     0.159555     Total SCF correction =     0.003424

     Entering Dynamics:    iteration =     6
                           time      =   0.0145 pico-seconds


     Soft (Berendsen) velocity rescaling

ATOMIC_POSITIONS (angstrom)
Au       0.035790895  -0.063684630  -0.137105133
Au       0.000802376   1.501379335   2.478408983
Au       1.599831843   2.267298848  -0.067819980
Au       2.230260871   0.038951864   1.529122980
Au      -1.617254166   2.295720330  -0.004809789
Au      -2.292215567   0.004339461   1.483603032
Au      -0.125908914  -1.480635669   2.302164378
Au      -1.482271130  -2.321389507  -0.000098629
Au       1.676228846  -2.185783935   0.021959432
Au       2.267583881   0.023674192  -1.445573094
Au       0.077076782   1.548957369  -2.274105697
Au      -2.260045006  -0.029812726  -1.627701029
Au      -0.109880711  -1.599014933  -2.258045452


     kinetic energy (Ekin) =     0.67862090 Ry
     temperature           =  5952.53540431 K 
     Ekin + Etot (const)   = ************** Ry

     Linear momentum :    0.0000000000    0.0000000000    0.0000000000

     The maximum number of steps has been reached.

     End of molecular dynamics calculation

     diffusion coefficients :
     atom     1   D =       0.00040059 cm^2/s
     atom     2   D =       0.00079125 cm^2/s
     atom     3   D =       0.00023794 cm^2/s
     atom     4   D =       0.00004361 cm^2/s
     atom     5   D =       0.00005280 cm^2/s
     atom     6   D =       0.00003404 cm^2/s
     atom     7   D =       0.00009948 cm^2/s
     atom     8   D =       0.00011154 cm^2/s
     atom     9   D =       0.00045393 cm^2/s
     atom    10   D =       0.00040041 cm^2/s
     atom    11   D =       0.00006322 cm^2/s
     atom    12   D =       0.00015842 cm^2/s
     atom    13   D =       0.00013769 cm^2/s

     < D > =       0.00022961 cm^2/s

     Writing output data file md_run.save

     init_run     :      7.95s CPU      9.08s WALL (       1 calls)
     electrons    :  61889.55s CPU  70912.61s WALL (    1000 calls)
     update_pot   :   5081.53s CPU   9006.33s WALL (     999 calls)
     forces       :   4589.77s CPU   4904.50s WALL (    1000 calls)

     Called by init_run:
     wfcinit      :      1.73s CPU      2.30s WALL (       1 calls)
     potinit      :      1.92s CPU      1.97s WALL (       1 calls)

     Called by electrons:
     c_bands      :  22411.02s CPU  22710.26s WALL (    8628 calls)
     sum_band     :  17651.55s CPU  19672.04s WALL (    8628 calls)
     v_of_rho     :   9554.30s CPU   9581.40s WALL (    9291 calls)
     newd         :   7316.02s CPU   9654.85s WALL (    9291 calls)
     PAW_pot      :   4034.21s CPU   4038.25s WALL (   10290 calls)
     mix_rho      :   1698.98s CPU   4594.07s WALL (    8628 calls)

     Called by c_bands:
     init_us_2    :    258.24s CPU    263.19s WALL (   19254 calls)
     regterg      :  21462.77s CPU  21652.72s WALL (    8628 calls)

     Called by sum_band:
     sum_band:bec :      1.69s CPU      1.79s WALL (    9627 calls)
     addusdens    :  11469.47s CPU  13466.93s WALL (    8628 calls)

     Called by *egterg:
     h_psi        :  16153.97s CPU  16212.84s WALL (   39334 calls)
     s_psi        :   1008.62s CPU   1009.90s WALL (   40332 calls)
     g_psi        :    104.71s CPU    105.59s WALL (   30705 calls)
     rdiaghg      :   1080.13s CPU   1172.19s WALL (   37997 calls)

     Called by h_psi:
     h_psi:pot    :  15996.96s CPU  16055.37s WALL (   39334 calls)
     h_psi:calbec :    931.37s CPU    933.32s WALL (   39334 calls)
     vloc_psi     :  14048.46s CPU  14103.83s WALL (   39334 calls)
     add_vuspsi   :   1016.52s CPU   1017.93s WALL (   39334 calls)

     General routines
     calbec       :   1565.94s CPU   1585.09s WALL (   54957 calls)
     fft          :   7539.56s CPU   7565.18s WALL (  159003 calls)
     ffts         :    195.48s CPU    195.97s WALL (   17919 calls)
     fftw         :  10936.08s CPU  10974.91s WALL ( 2113896 calls)
     interpolate  :   1170.09s CPU   1173.65s WALL (   17919 calls)
     davcio       :     29.62s CPU   3833.49s WALL (   84415 calls)

     Parallel routines
     fft_scatter  :   8323.75s CPU   8354.88s WALL ( 2290818 calls)

     PWSCF        :     0d   20h18m CPU        1d    0h 8m WALL


   This run was terminated on:  18:39:21   5Oct2017            

=------------------------------------------------------------------------------=
   JOB DONE.
=------------------------------------------------------------------------------=
